ITEM: TIMESTEP
0
ITEM: NUMBER OF ATOMS
2925
ITEM: BOX BOUNDS pp pp pp
-24.7314 24.7314
-24.8449 24.8449
-100 100
ITEM: ATOMS id type x y z c_cls 
1 1 -20.745 8.71864 -0.0204975 1 
2 1 15.1965 16.4582 0.357232 1 
3 1 2.64595 3.38698 -0.33509 1 
4 1 21.0578 2.55435 -0.391147 1 
5 1 -16.2534 15.7274 0.887081 1 
6 1 16.2188 8.54806 -0.0828462 1 
7 1 -12.199 6.62008 0.796448 1 
8 1 21.6607 -23.8991 -0.526544 1 
9 1 -12.6263 -16.5967 0.0891723 1 
10 1 -11.1888 -14.1354 0.261701 1 
11 1 -22.7114 -9.71506 -0.861496 1 
12 1 -15.3643 17.5332 0.985013 1 
13 1 -4.29059 -20.0993 -0.398883 1 
14 1 19.2221 -9.79331 -0.577937 1 
15 1 -4.69285 4.45052 -0.221306 1 
16 1 -15.4401 -15.8496 0.0658504 1 
17 1 -8.23971 6.95398 0.271206 1 
18 1 -12.8196 5.85071 0.770936 1 
19 1 -6.37421 19.6085 0.924473 1 
20 1 13.9351 -1.2515 -1.38326 1 
21 1 16.7835 2.21065 -1.01562 1 
22 1 15.9427 17.3583 0.282039 1 
23 1 -20.2259 -7.16296 -0.420904 1 
24 1 11.2736 -9.18709 -0.261972 1 
25 1 -9.26962 18.9687 0.897736 1 
26 1 -4.75433 7.57818 0.0646418 1 
27 1 21.0615 6.43453 -0.30064 1 
28 1 -4.50435 14.2626 0.149714 1 
29 1 -15.2516 15.041 0.734275 1 
30 1 -21.8192 8.24025 -0.112008 1 
31 1 -7.30983 1.73138 0.170473 1 
32 1 -23.1514 -7.28444 -0.97523 1 
33 1 5.0663 3.5217 -0.616459 1 
34 1 -2.08581 5.89589 -0.507594 1 
35 1 -20.5726 -24.7699 0.635041 1 
36 1 -14.257 11.7343 0.590154 1 
37 1 17.7826 -15.4428 -0.586982 1 
38 1 -1.38143 8.18776 -0.0509413 1 
39 1 10 -11.0303 -0.000601397 1 
40 1 11.3148 -17.3851 0.26386 1 
41 1 8.47697 -6.43017 -0.703517 1 
42 1 -11.9255 -17.1405 -0.0888393 1 
43 1 2.5036 6.47285 -0.674417 1 
44 1 -6.04928 1.64197 0.0188824 1 
45 1 23.8427 8.68547 0.167708 1 
46 1 -11.1382 3.79204 0.672002 1 
47 1 19.9756 16.8881 0.0105841 1 
48 1 9.88313 -23.2324 -0.132113 1 
49 1 -3.32047 23.6302 0.58038 1 
50 1 11.5255 11.9191 0.379697 1 
51 1 -19.0868 5.4937 0.672113 1 
52 1 -3.34393 13.1666 -0.0262723 1 
53 1 -4.88781 10.5229 -0.0595565 1 
54 1 4.89222 13.0839 0.162899 1 
55 1 8.4359 -24.8081 -0.308879 1 
56 1 11.2524 -4.35537 -1.19319 1 
57 1 24.4261 3.01413 0.151465 1 
58 1 15.335 3.21996 -0.69362 1 
59 1 -17.4799 -5.46037 -0.384593 1 
60 1 14.2156 -5.44533 -1.03476 1 
61 1 22.3369 -3.97876 -0.906764 1 
62 1 17.461 20.1966 0.339655 1 
63 1 13.7659 -6.37987 -0.790964 1 
64 1 -6.77129 20.3902 0.911043 1 
65 1 -21.0921 1.44534 0.0962772 1 
66 1 -11.9264 -4.17871 -0.736641 1 
67 1 -3.22828 8.35538 -0.164674 1 
68 1 22.7309 6.9553 0.0284804 1 
69 1 -16.2604 -16.4038 0.0912297 1 
70 1 23.6909 14.5495 0.505377 1 
71 1 -21.9464 6.27067 0.257767 1 
72 1 11.6792 4.22994 -0.356392 1 
73 1 -8.90481 -16.3836 -0.345872 1 
74 1 -22.3124 -11.7859 -0.515933 1 
75 1 7.28629 22.3995 -0.103283 1 
76 1 -19.8354 12.9333 0.37527 1 
77 1 -21.3851 18.1889 0.880286 1 
78 1 5.57145 12.3705 -0.0116658 1 
79 1 15.7922 -5.68142 -0.991726 1 
80 1 -8.35433 -11.5685 -0.198061 1 
81 1 5.05914 6.10899 -0.19838 1 
82 1 23.0885 9.93901 0.219191 1 
83 1 -7.43989 -17.5708 -0.200982 1 
84 1 10.3587 -19.1326 -0.0511423 1 
85 1 6.98286 20.4152 0.189036 1 
86 1 -9.02047 -24.3098 0.769283 1 
87 1 22.6418 -9.98119 -0.596014 1 
88 1 -19.6029 18.1883 0.842654 1 
89 1 -5.38388 -17.6987 -0.312746 1 
90 1 12.8868 -3.99998 -1.20005 1 
91 1 24.4497 -7.72768 -1.03893 1 
92 1 -19.7969 1.48639 0.00397863 1 
93 1 18.2502 18.4911 0.151244 1 
94 1 -12.3194 -23.8436 1.11335 1 
95 1 -18.7608 20.8198 0.999723 1 
96 1 4.13911 -23.0907 -0.17186 1 
97 1 -2.61938 -2.118 -0.34893 1 
98 1 18.4006 20.5772 0.126965 1 
99 1 -7.91208 17.6408 0.849446 1 
100 1 -22.6585 20.8424 0.536495 1 
101 1 19.6617 13.7383 0.2546 1 
102 1 -1.05652 -17.3816 -0.490239 1 
103 1 23.3782 22.8253 -0.00691641 1 
104 1 18.5696 1.57437 -0.703717 1 
105 1 3.42052 0.447205 -0.647804 1 
106 1 12.091 18.6837 0.104179 1 
107 1 3.83478 -2.94676 -0.622708 1 
108 1 -22.6119 15.8811 0.781286 1 
109 1 14.7513 17.226 0.227053 1 
110 1 -19.1039 17.5247 1.01409 1 
111 1 2.68547 -11.273 0.128959 1 
112 1 4.36815 -7.8702 0.0442279 1 
113 1 22.2944 3.79595 -0.33245 1 
114 1 23.8019 20.6201 -0.0021861 1 
115 1 -22.4888 -24.412 0.5538 1 
116 1 18.4447 3.4401 -0.667862 1 
117 1 -10.6131 8.52071 0.525277 1 
118 1 -17.7046 -12.8755 -0.0623955 1 
119 1 -0.474299 1.96219 -0.441843 1 
120 1 -9.20229 -18.4215 0.121028 1 
121 1 -2.16949 10.6076 -0.287325 1 
122 1 -9.05817 -17.4861 -0.096816 1 
123 1 2.85968 -15.9222 -0.0993879 1 
124 1 -4.48632 -19.11 -0.668847 1 
125 1 13.1192 -13.2812 0.0139699 1 
126 1 -14.4644 -13.2115 0.0368036 1 
127 1 1.42638 12.6038 -0.0334575 1 
128 1 -18.8315 -24.7491 0.595261 1 
129 1 14.9625 -5.06569 -1.04028 1 
130 1 -13.0681 8.6579 0.800173 1 
131 1 11.9147 -17.9994 0.205528 1 
132 1 4.36891 4.33927 -0.779267 1 
133 1 7.44349 0.808416 -1.43021 1 
134 1 21.9992 19.1066 0.165365 1 
135 1 19.2524 -0.98186 -1.01507 1 
136 1 22.4401 -7.59654 -0.930194 1 
137 1 -2.52541 13.8178 0.079364 1 
138 1 4.22991 22.3037 -0.207124 1 
139 1 24.0843 -20.3911 -0.372176 1 
140 1 3.3141 18.6246 0.386752 1 
141 1 4.56147 -6.20874 -0.32526 1 
142 1 21.0276 10.2558 0.258413 1 
143 1 23.9637 -14.6852 -0.59747 1 
144 1 0.0172591 19.5481 0.451209 1 
145 1 3.90605 -2.06876 -0.845548 1 
146 1 -15.1545 18.426 1.10193 1 
147 1 12.2629 -9.84684 -0.240275 1 
148 1 -7.33774 13.8617 0.573147 1 
149 1 -15.5366 -10.2057 -0.453617 1 
150 1 -17.7659 -4.64451 -0.451014 1 
151 1 24.128 9.60987 -0.0802641 1 
152 1 18.4705 13.8699 0.232574 1 
153 1 6.59012 23.978 -0.110246 1 
154 1 -10.9948 -21.221 0.415128 1 
155 1 -11.9272 1.50264 0.298545 1 
156 1 9.98481 -12.7546 0.488285 1 
157 1 11.7485 0.194428 -1.01616 1 
158 1 -14.8341 15.7678 0.61253 1 
159 1 10.9552 -16.5302 0.446291 1 
160 1 -1.8288 3.60067 -0.753654 1 
161 1 -5.24341 -24.0513 0.259409 1 
162 1 1.2881 -7.33574 -0.0199856 1 
163 1 -3.14309 -1.38443 -0.211218 1 
164 1 -12.106 7.56822 0.741105 1 
165 1 -2.54857 -12.1512 0.266862 1 
166 1 4.64196 -1.63194 -1.17654 1 
167 1 -20.1867 -2.11329 -0.0590431 1 
168 1 24.1576 -0.757223 -0.350216 1 
169 1 -18.5575 12.433 0.503581 1 
170 1 -10.4176 16.6911 1.04864 1 
171 1 -6.92274 9.13938 0.118225 1 
172 1 -7.58354 -1.6774 -0.0124606 1 
173 1 20.3232 14.9828 0.287161 1 
174 1 -4.37568 -24.5888 0.417813 1 
175 1 7.64901 9.3259 0.160009 1 
176 1 -21.1313 -16.9277 -0.031434 1 
177 1 21.8081 -8.55339 -0.713877 1 
178 1 6.69582 18.815 0.506522 1 
179 1 16.8762 15.4876 0.112596 1 
180 1 -6.28011 11.1841 0.124869 1 
181 1 19.5972 24.0347 -0.28527 1 
182 1 3.63762 -24.0344 -0.167394 1 
183 1 -18.3139 8.19778 0.589306 1 
184 1 -7.51136 -2.56743 0.148372 1 
185 1 8.5882 -20.646 -0.248455 1 
186 1 -18.8855 4.55285 0.342291 1 
187 1 6.80922 -22.0673 -0.322195 1 
188 1 12.3987 0.9778 -0.95541 1 
189 1 -8.9139 12.5352 0.459865 1 
190 1 -18.8512 2.0632 0.326544 1 
191 1 19.1074 8.28977 -0.174945 1 
192 1 -3.97048 2.98517 -0.243236 1 
193 1 -13.8595 -5.90631 -0.719043 1 
194 1 -21.6694 10.3685 -0.112266 1 
195 1 -18.2996 17.9301 0.939373 1 
196 1 5.32413 22.5772 -0.184661 1 
197 1 -21.8017 22.7742 0.364396 1 
198 1 -0.799307 -1.82739 -0.408058 1 
199 1 18.7123 0.677865 -0.80653 1 
200 1 22.4116 -10.9378 -0.384882 1 
201 1 9.99003 7.88222 0.337782 1 
202 1 -14.3152 18.0787 0.898713 1 
203 1 -22.7206 22.7457 0.389578 1 
204 1 -9.42258 -14.4798 0.0381641 1 
205 1 5.86521 -16.1984 -0.315292 1 
206 1 12.6066 14.2485 0.366845 1 
207 1 13.6403 -20.9145 0.125422 1 
208 1 2.33079 1.44792 -0.437343 1 
209 1 -21.5426 -19.9296 0.248286 1 
210 1 12.7378 19.0189 0.385616 1 
211 1 7.50965 -9.75591 0.115275 1 
212 1 11.6741 -3.67505 -1.2451 1 
213 1 -16.6636 -11.6754 -0.086845 1 
214 1 9.80657 11.0145 0.29128 1 
215 1 -19.5704 13.9238 0.433673 1 
216 1 11.8176 -22.6917 -0.172721 1 
217 1 -7.08166 10.9594 0.127799 1 
218 1 -21.3596 -15.6274 -0.196559 1 
219 1 17.1761 -12.1376 -0.350185 1 
220 1 7.8453 21.8377 0.0378358 1 
221 1 -18.9821 -5.81342 -0.38126 1 
222 1 19.8499 11.7394 0.453263 1 
223 1 21.7883 -2.01001 -0.835586 1 
224 1 -2.37715 21.6412 0.55168 1 
225 1 6.87293 3.39036 -0.939997 1 
226 1 19.6363 15.543 0.260563 1 
227 1 7.52808 -15.8083 0.134956 1 
228 1 -19.6273 -17.2692 0.180986 1 
229 1 6.40744 -19.3831 -0.555604 1 
230 1 -22.506 18.6938 0.830554 1 
231 1 22.0951 -13.5723 -0.304236 1 
232 1 17.9361 -8.35665 -0.788534 1 
233 1 18.7557 -6.98102 -1.02117 1 
234 1 -13.6397 -19.29 0.569524 1 
235 1 13.5175 -17.0591 0.0179639 1 
236 1 23.9244 15.4921 0.328032 1 
237 1 -21.8378 -13.5277 -0.410118 1 
238 1 -10.4354 -24.8196 0.984078 1 
239 1 6.71065 -16.2268 -0.22772 1 
240 1 12.7114 -17.0646 0.102274 1 
241 1 -18.909 10.9732 0.125475 1 
242 1 11.0679 -20.5822 -0.0392884 1 
243 1 -1.48801 12.5279 -0.0871279 1 
244 1 19.3006 12.8261 0.369119 1 
245 1 20.9444 -12.9842 -0.281916 1 
246 1 7.87442 -12.259 0.34551 1 
247 1 -18.0669 23.4613 0.738027 1 
248 1 1.04099 -3.04156 -0.446651 1 
249 1 -17.7536 -13.8497 -0.0519565 1 
250 1 -11.2073 16.5933 0.901238 1 
251 1 13.2844 0.599278 -1.08034 1 
252 1 1.92731 -2.58706 -0.554783 1 
253 1 -0.127753 -17.8516 -0.249162 1 
254 1 19.6257 -21.0023 -0.56521 1 
255 1 -15.7187 21.0725 1.1177 1 
256 1 0.0743123 17.3363 0.440493 1 
257 1 0.389963 -15.5602 -0.143916 1 
258 1 18.1474 0.0602323 -0.986244 1 
259 1 22.8901 18.9416 0.159623 1 
260 1 -5.97436 -3.21762 0.00152857 1 
261 1 23.4177 -22.3799 -0.354454 1 
262 1 -15.3358 -8.96653 -0.490463 1 
263 1 17.5444 -2.68899 -1.22684 1 
264 1 11.8378 11.1897 0.583701 1 
265 1 -17.6285 3.13893 0.503906 1 
266 1 -17.8498 1.18354 0.0865904 1 
267 1 -23.1103 -10.4055 -0.785072 1 
268 1 6.76123 -4.29926 -0.782138 1 
269 1 2.29394 -15.0248 -0.112796 1 
270 1 16.2424 -8.28686 -0.719684 1 
271 1 -23.9107 -10.8058 -0.763598 1 
272 1 5.62245 23.8226 -0.0336237 1 
273 1 12.9498 -14.9969 0.220814 1 
274 1 16.4759 -12.5581 -0.347531 1 
275 1 -22.1266 11.8436 -0.0806206 1 
276 1 -6.87632 -9.46214 0.0807681 1 
277 1 -13.4689 21.6055 1.18514 1 
278 1 -3.39291 9.16249 -0.0349211 1 
279 1 -3.04681 22.0652 0.844665 1 
280 1 -16.2178 16.9422 1.1696 1 
281 1 -0.80221 15.0732 0.488426 1 
282 1 -14.2304 -16.4573 0.024367 1 
283 1 -18.6342 -0.670691 -0.0525854 1 
284 1 13.3534 15.9707 0.235168 1 
285 1 -0.690613 12.8953 0.125997 1 
286 1 17.5533 -3.79501 -1.27383 1 
287 1 22.3776 16.209 0.351772 1 
288 1 -2.8358 22.8246 0.593354 1 
289 1 22.3028 -20.701 -0.460133 1 
290 1 2.17186 -0.424578 -0.336177 1 
291 1 -16.5169 19.6152 1.26024 1 
292 1 10.0083 -22.2877 -0.163032 1 
293 1 2.14645 13.2644 0.10662 1 
294 1 10.7816 9.66327 0.600702 1 
295 1 -21.0158 3.56417 0.13734 1 
296 1 14.002 -22.5009 -0.262698 1 
297 1 -21.3776 -14.5506 -0.237973 1 
298 1 19.7797 -12.2581 -0.443048 1 
299 1 -20.1632 3.42069 0.152241 1 
300 1 7.34739 -21.4186 -0.268688 1 
301 1 -2.52843 -23.4531 -0.00626003 1 
302 1 -9.12965 10.8274 0.305491 1 
303 1 -7.04853 16.5475 0.829966 1 
304 1 -11.2326 -17.8464 0.157293 1 
305 1 -7.8204 16.8581 0.582654 1 
306 1 6.25099 16.3433 0.679104 1 
307 1 -14.0208 10.729 0.442534 1 
308 1 19.9383 6.80415 -0.415488 1 
309 1 5.55939 -15.0865 -0.13197 1 
310 1 12.6842 -2.01085 -1.26252 1 
311 1 13.5129 21.6531 0.318778 1 
312 1 8.80744 18.4054 0.312134 1 
313 1 -7.96007 -15.9744 -0.257328 1 
314 1 -15.8987 -19.1408 0.665492 1 
315 1 -17.4109 -9.08308 -0.495668 1 
316 1 23.9209 -17.796 -0.664449 1 
317 1 22.3227 -22.3851 -0.493483 1 
318 1 -11.7428 -0.216372 0.304841 1 
319 1 7.84682 -3.11871 -1.18174 1 
320 1 0.671819 7.02748 -0.513576 1 
321 1 1.72841 6.9489 -0.583659 1 
322 1 -20.9668 -1.25376 0.0211969 1 
323 1 14.8499 -3.77676 -1.28461 1 
324 1 14.546 23.4283 0.265103 1 
325 1 -3.44528 -12.6695 0.0358514 1 
326 1 19.3222 3.4508 -0.720606 1 
327 1 -21.9177 15.2802 0.824461 1 
328 1 -15.2827 9.26434 0.71402 1 
329 1 0.47308 -4.91105 -0.0201931 1 
330 1 16.537 -6.11304 -1.08052 1 
331 1 21.2505 12.658 0.450808 1 
332 1 2.0911 9.53843 -0.451726 1 
333 1 13.3674 1.77281 -0.851681 1 
334 1 4.95822 0.641914 -0.84267 1 
335 1 -7.6308 3.78524 0.263606 1 
336 1 -4.27637 9.52491 -0.292143 1 
337 1 -11.1497 0.720301 0.281121 1 
338 1 -3.8198 11.1727 -0.112683 1 
339 1 -9.41619 7.15168 0.423616 1 
340 1 -24.2548 20.5286 0.443512 1 
341 1 0.887534 3.77374 -0.689626 1 
342 1 9.31495 10.2458 0.261722 1 
343 1 12.2559 17.5029 0.190178 1 
344 1 -14.4581 7.40686 0.724475 1 
345 1 -24.2277 7.07792 0.0680053 1 
346 1 -5.59996 17.7328 0.632546 1 
347 1 -0.106062 -19.6363 -0.36359 1 
348 1 -3.39299 14.1367 0.0525886 1 
349 1 5.31553 -7.53455 0.0185286 1 
350 1 14.4956 -1.91692 -1.36504 1 
351 1 8.23724 -11.4899 0.424607 1 
352 1 -20.5024 -21.7504 0.606113 1 
353 1 -8.17496 -7.996 -0.358904 1 
354 1 -13.9365 8.39892 0.89189 1 
355 1 -3.2556 6.25614 -0.2558 1 
356 1 -10.2927 15.6538 0.666536 1 
357 1 -14.9649 0.664736 0.029209 1 
358 1 -4.97541 -3.60254 -0.29239 1 
359 1 6.66887 -20.2211 -0.410355 1 
360 1 11.3307 22.592 -0.0101988 1 
361 1 15.3617 -7.70071 -0.788796 1 
362 1 2.65576 -21.5432 -0.0536917 1 
363 1 -8.94383 -15.4213 -0.266768 1 
364 1 15.8792 -23.3346 -0.154607 1 
365 1 17.4308 4.67449 -0.708506 1 
366 1 -7.6216 -22.2399 0.392159 1 
367 1 20.1932 -6.88454 -0.926895 1 
368 1 3.62412 10.9438 -0.153176 1 
369 1 7.98166 16.5584 0.360644 1 
370 1 -20.9167 7.02136 0.279711 1 
371 1 -13.2629 -20.3101 0.640293 1 
372 1 -8.1675 -0.858859 0.184112 1 
373 1 -2.65572 -18.7544 -0.479417 1 
374 1 13.9717 14.206 0.340569 1 
375 1 17.6072 5.5556 -0.691435 1 
376 1 20.0284 -13.0104 -0.42416 1 
377 1 -2.15834 -13.6788 -0.0872175 1 
378 1 -21.7209 14.2385 0.584287 1 
379 1 21.5224 -20.8964 -0.412502 1 
380 1 -1.19817 7.23194 -0.360937 1 
381 1 -22.8808 16.7966 0.809094 1 
382 1 23.6076 2.78282 -0.159381 1 
383 1 -10.6048 20.3641 1.29587 1 
384 1 16.9319 11.4026 0.228524 1 
385 1 17.4858 17.0519 0.331137 1 
386 1 -0.24846 -18.7207 -0.442148 1 
387 1 15.5277 4.24835 -0.590445 1 
388 1 -23.9087 -0.493808 -0.178417 1 
389 1 -19.7944 11.3262 0.0694018 1 
390 1 -5.90366 -5.32536 0.202164 1 
391 1 17.1226 6.81141 -0.518719 1 
392 1 -8.04887 23.7569 0.65832 1 
393 1 20.4655 22.6522 -0.3229 1 
394 1 15.094 -13.6243 -0.339066 1 
395 1 -7.11247 -7.858 -0.173449 1 
396 1 18.1704 -23.1724 -0.483908 1 
397 1 -16.9208 23.9466 1.09059 1 
398 1 0.605405 8.75358 -0.327675 1 
399 1 -11.937 -12.6321 0.00701334 1 
400 1 -12.1077 -1.63039 0.00279696 1 
401 1 18.3004 -0.969966 -1.0369 1 
402 1 23.2548 -4.34211 -0.82961 1 
403 1 0.943461 -1.2175 -0.0548971 1 
404 1 7.57276 -13.8431 0.365075 1 
405 1 -18.6657 -8.59229 -0.405566 1 
406 1 -15.999 2.10476 0.451582 1 
407 1 22.66 0.616223 -0.410579 1 
408 1 -8.90473 23.6835 0.883646 1 
409 1 13.2474 14.9848 0.294869 1 
410 1 5.74059 1.30614 -1.12632 1 
411 1 -19.2594 19.7713 0.965828 1 
412 1 -10.9027 -18.8105 0.388385 1 
413 1 -24.5954 9.09669 -0.295763 1 
414 1 -21.7118 20.9701 0.516338 1 
415 1 -17.2353 -22.5431 0.816011 1 
416 1 -10.4811 -23.255 1.03303 1 
417 1 -3.46734 -15.1522 -0.313344 1 
418 1 2.54066 -4.33967 -0.495462 1 
419 1 -19.4927 -2.58949 -0.192223 1 
420 1 17.3291 12.1837 0.144238 1 
421 1 -14.5505 23.6681 1.41622 1 
422 1 0.960566 20.2547 0.361658 1 
423 1 11.6969 -11.1358 -0.0689149 1 
424 1 -0.919532 -20.0581 -0.208602 1 
425 1 -3.94152 5.66496 -0.189215 1 
426 1 -10.9609 22.2327 1.14494 1 
427 1 -16.2933 24.6624 1.12047 1 
428 1 -21.5887 -20.7085 0.352489 1 
429 1 10.5866 12.1365 0.297043 1 
430 1 21.8924 7.0851 -0.0098992 1 
431 1 -0.398745 -22.4426 0.0837834 1 
432 1 -19.2605 -18.7794 0.397144 1 
433 1 -24.7245 16.9944 0.591525 1 
434 1 22.5295 23.1027 -0.181163 1 
435 1 3.14936 1.19426 -0.44482 1 
436 1 11.8895 -20.1788 0.0802387 1 
437 1 22.49 -19.2691 -0.47331 1 
438 1 11.4459 8.22567 0.298483 1 
439 1 6.6337 0.853458 -1.11229 1 
440 1 -22.9928 12.6106 0.397992 1 
441 1 3.46795 9.61258 -0.44349 1 
442 1 -16.6604 -18.7649 0.444905 1 
443 1 5.4974 7.71925 -0.337556 1 
444 1 -1.34568 14.3601 0.436322 1 
445 1 -6.55761 -14.1658 0.0927933 1 
446 1 -13.5174 -17.1429 -0.0531706 1 
447 1 20.1674 -22.5748 -0.35414 1 
448 1 -13.5035 15.1316 0.710058 1 
449 1 -11.1638 15.664 0.876303 1 
450 1 2.70469 -7.51131 -0.0787869 1 
451 1 22.1201 4.69096 -0.171663 1 
452 1 -18.313 7.1132 0.510846 1 
453 1 23.8716 5.32927 0.149543 1 
454 1 0.122035 -5.86714 0.012959 1 
455 1 4.21821 2.33583 -0.48981 1 
456 1 9.83324 2.06647 -0.856268 1 
457 1 3.2531 -17.0887 -0.137063 1 
458 1 21.4919 16.2247 0.0866022 1 
459 1 -23.0598 -14.9687 -0.472259 1 
460 1 22.0536 8.62307 -0.194416 1 
461 1 2.3031 -17.473 -0.0634819 1 
462 1 19.3217 4.28723 -0.556675 1 
463 1 -1.29 2.6637 -0.296636 1 
464 1 16.458 4.1686 -0.669928 1 
465 1 -13.7818 -10.9227 -0.337602 1 
466 1 12.8829 -24.0181 0.173238 1 
467 1 -0.974942 -9.34875 0.399806 1 
468 1 -23.2632 10.4726 -0.150177 1 
469 1 -12.5471 -0.731901 0.110075 1 
470 1 -18.6337 -3.96706 -0.380967 1 
471 1 13.969 -8.81278 -0.49758 1 
472 1 -16.4836 -1.65566 0.246668 1 
473 1 -20.692 -17.5474 0.189305 1 
474 1 3.33625 4.06441 -0.679123 1 
475 1 -5.23741 -19.9552 -0.380466 1 
476 1 21.6855 -21.7619 -0.376955 1 
477 1 -0.268295 -7.58697 0.133123 1 
478 1 -16.2621 23.4228 1.20012 1 
479 1 -19.0603 -15.4785 0.0216726 1 
480 1 6.82236 -8.67029 -0.206357 1 
481 1 16.5635 17.9564 0.255731 1 
482 1 1.12389 -19.9572 -0.16555 1 
483 1 -23.6402 21.3009 0.506813 1 
484 1 15.8961 -19.4562 -0.445901 1 
485 1 7.49078 -20.5729 -0.256635 1 
486 1 4.02363 12.8402 0.146907 1 
487 1 -0.867794 3.39859 -0.768487 1 
488 1 -4.2705 -5.82494 0.443022 1 
489 1 -18.5691 -18.2643 0.273951 1 
490 1 16.4039 -9.70669 -0.523162 1 
491 1 0.485009 -23.3175 -0.159049 1 
492 1 6.58169 -9.47902 0.274967 1 
493 1 -4.7112 23.711 0.654007 1 
494 1 20.1798 1.22402 -0.663201 1 
495 1 0.0274303 -12.1965 0.273624 1 
496 1 11.6888 6.97364 0.127093 1 
497 1 8.15898 8.73135 0.256474 1 
498 1 -11.8459 5.68215 0.884757 1 
499 1 14.2859 5.10134 0.0081907 1 
500 1 12.3049 13.262 0.519437 1 
501 1 -1.29279 -11.9729 0.264524 1 
502 1 5.95229 19.7418 0.373781 1 
503 1 19.7303 -16.9038 -0.299968 1 
504 1 8.90529 -3.18987 -1.16004 1 
505 1 -8.91381 19.6975 0.885595 1 
506 1 -18.1795 -22.1985 0.910496 1 
507 1 0.993482 14.1315 0.461686 1 
508 1 1.57822 7.77471 -0.421482 1 
509 1 5.97976 -8.57244 0.000914957 1 
510 1 23.6353 13.5283 0.375165 1 
511 1 15.1506 -15.681 -0.29448 1 
512 1 -7.85891 14.8146 0.696837 1 
513 1 -10.3432 -7.07719 -0.518562 1 
514 1 4.02767 -11.9152 0.28536 1 
515 1 24.3388 -5.63973 -0.924149 1 
516 1 -1.8956 22.6524 0.618123 1 
517 1 -16.36 6.90263 0.302007 1 
518 1 -23.7231 13.1822 0.640873 1 
519 1 -14.34 -20.0398 0.679953 1 
520 1 -1.16599 9.03294 -0.128453 1 
521 1 17.4537 1.77333 -0.966007 1 
522 1 24.7143 21.9932 0.308834 1 
523 1 7.48468 12.8475 0.310814 1 
524 1 14.0296 -12.8293 0.00445394 1 
525 1 3.1572 -15.1488 0.126829 1 
526 1 -24.4511 -5.02418 -0.643834 1 
527 1 0.287633 10.909 -0.306183 1 
528 1 -18.4245 -5.22756 -0.3479 1 
529 1 -0.408914 -10.7152 0.453764 1 
530 1 14.2801 0.532845 -1.10166 1 
531 1 -20.3001 -12.8619 -0.278083 1 
532 1 -15.3243 7.26846 0.475265 1 
533 1 -23.1127 -16.8301 -0.201901 1 
534 1 14.1029 2.26471 -0.797863 1 
535 1 24.3185 -6.72445 -1.05901 1 
536 1 4.26642 9.26511 -0.354739 1 
537 1 10.0866 4.14226 -0.60894 1 
538 1 8.88264 -18.7841 -0.130355 1 
539 1 1.95845 -24.541 -0.0729915 1 
540 1 -23.5152 -15.9709 -0.312984 1 
541 1 -11.7569 -5.34729 -0.610005 1 
542 1 -2.43578 -24.5187 0.0103244 1 
543 1 -7.4572 8.01865 0.217695 1 
544 1 0.734946 2.9103 -0.533964 1 
545 1 -20.8627 -10.8765 -0.664371 1 
546 1 19.391 9.87818 0.0744226 1 
547 1 -9.52734 23.1031 0.945186 1 
548 1 -5.16805 -11.2837 0.185308 1 
549 1 9.48541 -18.4141 0.173234 1 
550 1 -12.0583 -18.3486 0.26238 1 
551 1 -21.068 -19.0714 0.295027 1 
552 1 5.29751 18.0533 0.687138 1 
553 1 10.441 -13.5258 0.477153 1 
554 1 -24.3618 -3.37099 -0.554876 1 
555 1 18.2377 23.5821 -0.224245 1 
556 1 -21.3613 19.9015 0.986806 1 
557 1 -22.4916 -7.91164 -0.981412 1 
558 1 3.59816 -4.72245 -0.650049 1 
559 1 -22.8111 -18.474 -0.0540363 1 
560 1 2.60905 7.47241 -0.510471 1 
561 1 24.5737 -15.5645 -0.767603 1 
562 1 -17.119 16.1147 0.969489 1 
563 1 -19.6621 -5.35453 -0.422311 1 
564 1 -6.2088 7.45653 0.117215 1 
565 1 14.4579 13.3862 0.166682 1 
566 1 -17.1536 3.92927 0.560319 1 
567 1 19.1047 -14.4005 -0.394164 1 
568 1 14.5505 -20.5869 -0.270942 1 
569 1 1.7382 -14.3128 0.022647 1 
570 1 19.2061 -19.682 -0.471637 1 
571 1 -1.14473 6.10276 -0.519249 1 
572 1 3.2725 -20.0386 -0.0689273 1 
573 1 -12.2773 24.0508 1.23234 1 
574 1 -10.3569 -13.7726 0.100641 1 
575 1 20.4179 17.6322 -0.0428076 1 
576 1 14.8686 -6.99496 -0.86481 1 
577 1 6.52954 11.3592 0.0198739 1 
578 1 -7.64641 -21.2561 0.425717 1 
579 1 -2.17913 -5.8834 0.0556754 1 
580 1 3.10084 -0.451481 -0.470954 1 
581 1 -13.6641 7.51644 0.870896 1 
582 1 -5.82009 22.3968 0.809197 1 
583 1 -10.2999 -22.2073 0.693033 1 
584 1 24.1045 -23.4445 -0.220727 1 
585 1 0.612011 7.99139 -0.44365 1 
586 1 -22.9538 13.8312 0.6164 1 
587 1 -20.4985 -23.8324 0.480205 1 
588 1 7.37805 1.58503 -1.20187 1 
589 1 8.77369 -17.373 -0.032137 1 
590 1 18.18 -5.16203 -1.20699 1 
591 1 18.9654 4.97666 -0.826106 1 
592 1 15.6767 -1.9457 -1.20084 1 
593 1 -11.4292 -20.3705 0.436449 1 
594 1 -10.2708 -11.0709 -0.134374 1 
595 1 -18.7119 9.02871 0.485832 1 
596 1 -14.6841 13.4965 0.693469 1 
597 1 -5.08305 11.2415 0.313005 1 
598 1 -13.5198 -2.3787 -0.397752 1 
599 1 12.1515 15.1717 0.417819 1 
600 1 -2.70923 18.2083 0.620462 1 
601 1 -13.259 -8.44343 -0.472861 1 
602 1 -17.0294 -6.11894 -0.254964 1 
603 1 -9.21967 -9.68299 -0.470581 1 
604 1 -6.27575 4.29507 -0.0118427 1 
605 1 -5.43458 -19.0939 -0.618298 1 
606 1 -23.3698 18.0467 0.691476 1 
607 1 -24.5172 -19.2727 -0.281904 1 
608 1 -12.9739 10.4666 0.695877 1 
609 1 -11.8187 14.7118 0.482883 1 
610 1 4.33189 5.6603 -0.573493 1 
611 1 -5.66717 3.44513 -0.0385815 1 
612 1 -22.4488 10.873 -0.160507 1 
613 1 -21.0575 -2.19972 0.0833425 1 
614 1 17.162 -16.267 -0.334668 1 
615 1 23.9009 -4.8545 -0.890425 1 
616 1 5.78435 10.609 0.00821118 1 
617 1 0.339686 -11.1305 0.405442 1 
618 1 0.777428 -8.50135 -0.0696178 1 
619 1 20.609 -17.1847 -0.451328 1 
620 1 21.2578 5.24288 -0.284867 1 
621 1 17.1622 21.5635 0.102608 1 
622 1 -20.7579 -13.6446 -0.149302 1 
623 1 -18.6743 -7.83348 -0.33335 1 
624 1 -8.10062 22.3938 0.729174 1 
625 1 -11.0512 19.3181 1.2514 1 
626 1 -4.72123 20.2021 0.577971 1 
627 1 -13.4512 -13.6321 0.102814 1 
628 1 -5.56872 8.09352 -0.00687199 1 
629 1 -5.5924 -1.60962 -0.415555 1 
630 1 -1.6278 -5.32787 -0.0403194 1 
631 1 -21.4336 23.849 0.546383 1 
632 1 4.85282 17.4423 0.58997 1 
633 1 3.05087 -23.12 -0.283617 1 
634 1 -9.21986 0.793971 0.475216 1 
635 1 22.3679 9.42874 0.264261 1 
636 1 14.5466 3.39659 -0.666178 1 
637 1 -0.129318 2.8476 -0.77861 1 
638 1 15.7898 14.3936 0.220586 1 
639 1 2.64737 -20.744 -0.140882 1 
640 1 -12.7226 -14.1676 0.235997 1 
641 1 15.2369 -23.9006 -0.143402 1 
642 1 -9.18228 8.53036 0.448214 1 
643 1 -21.0867 21.9122 0.621703 1 
644 1 -23.5967 -4.9772 -0.600983 1 
645 1 16.4471 7.55277 -0.287218 1 
646 1 17.5069 -19.5121 -0.52802 1 
647 1 -13.9923 -23.3294 1.18309 1 
648 1 -6.14698 16.9138 0.828005 1 
649 1 -17.6093 -12.0925 -0.0607377 1 
650 1 5.0013 -15.9162 -0.0350085 1 
651 1 -4.48625 6.42106 -0.139165 1 
652 1 -19.164 -12.104 -0.296761 1 
653 1 -7.67279 -10.7816 -0.136232 1 
654 1 22.6294 -16.4731 -0.736284 1 
655 1 16.6267 -17.7825 -0.554403 1 
656 1 -6.25187 9.7039 -0.0507648 1 
657 1 -12.1089 -7.19678 -0.766205 1 
658 1 2.86311 23.7496 -0.13551 1 
659 1 19.9531 21.7901 -0.0124478 1 
660 1 -19.5751 -24.2422 0.609295 1 
661 1 -9.72483 -2.7287 0.151469 1 
662 1 -20.7118 -22.81 0.511313 1 
663 1 -23.2771 24.2369 0.0402004 1 
664 1 18.3993 -4.23663 -1.16929 1 
665 1 -8.71599 0.0860916 0.0301786 1 
666 1 4.17785 6.99967 -0.474014 1 
667 1 -18.031 -23.9837 0.73105 1 
668 1 -11.0231 18.1592 1.2058 1 
669 1 11.6842 13.8955 0.367649 1 
670 1 -12.2257 15.5687 0.675197 1 
671 1 6.84253 -0.124441 -1.06294 1 
672 1 14.9783 14.5433 0.28238 1 
673 1 -10.5122 1.3799 0.212961 1 
674 1 12.356 -12.5887 0.175197 1 
675 1 -9.48827 3.2052 0.371033 1 
676 1 14.1615 15.1296 0.303892 1 
677 1 -7.13667 0.802616 0.242644 1 
678 1 24.2228 23.5318 -0.11811 1 
679 1 -6.61592 -22.2513 0.313366 1 
680 1 -12.5877 -2.34155 -0.264002 1 
681 1 -23.0738 -12.2473 -0.849495 1 
682 1 19.5084 -8.52832 -0.600987 1 
683 1 -8.16164 -3.35524 0.103478 1 
684 1 15.7833 -22.5391 -0.403387 1 
685 1 15.0594 -1.23476 -1.5277 1 
686 1 -16.2766 -3.77879 -0.36956 1 
687 1 22.1775 21.0836 -0.0319239 1 
688 1 -11.4155 2.86581 0.532411 1 
689 1 -6.78988 22.5179 0.500563 1 
690 1 -0.467237 -9.91118 0.349917 1 
691 1 -4.33879 -10.9426 0.199468 1 
692 1 -9.1487 13.8729 0.387981 1 
693 1 4.10834 0.998877 -0.793187 1 
694 1 14.9025 20.8826 0.266949 1 
695 1 -6.58608 -12.3304 0.0668955 1 
696 1 21.4291 8.02545 -0.318767 1 
697 1 -24.7275 6.19318 0.116173 1 
698 1 13.6962 -2.32927 -1.27802 1 
699 1 -7.91225 9.38889 0.115887 1 
700 1 -15.6505 21.8608 1.2405 1 
701 1 14.5648 15.8973 0.19655 1 
702 1 18.3869 16.5528 0.377318 1 
703 1 8.80312 -12.2704 0.468653 1 
704 1 16.1862 2.98304 -0.958031 1 
705 1 -4.56568 -16.0883 -0.184313 1 
706 1 -16.7033 -7.85748 -0.598861 1 
707 1 -17.9484 16.9818 0.977314 1 
708 1 -15.4587 19.486 1.02538 1 
709 1 1.86908 5.55373 -0.648694 1 
710 1 -3.03206 10.979 -0.134952 1 
711 1 23.4189 -3.33208 -0.694526 1 
712 1 -20.1488 17.3418 0.922773 1 
713 1 -17.6612 -7.82416 -0.473301 1 
714 1 3.53011 -7.09268 -0.261006 1 
715 1 12.3495 9.95338 0.500108 1 
716 1 2.82575 -24.2177 0.037998 1 
717 1 -20.2664 -4.81208 0.0783155 1 
718 1 24.2913 16.437 0.115284 1 
719 1 22.5671 -2.97606 -0.6491 1 
720 1 22.7158 -23.9761 -0.257105 1 
721 1 -3.01612 15.737 0.53689 1 
722 1 11.8768 -6.09635 -1.00678 1 
723 1 -10.9856 -5.55043 -0.619875 1 
724 1 10.5982 19.6909 0.178918 1 
725 1 0.747572 -21.1787 0.201168 1 
726 1 13.6949 -24.4074 0.0220219 1 
727 1 20.9571 -6.68301 -0.783776 1 
728 1 2.09163 -16.7044 0.0668089 1 
729 1 17.556 17.8677 0.0970005 1 
730 1 -0.332279 -2.58204 -0.219491 1 
731 1 -22.9623 21.8722 0.432435 1 
732 1 -4.64843 -14.027 -0.113988 1 
733 1 19.7349 -15.3436 -0.303291 1 
734 1 -1.32204 23.482 0.291969 1 
735 1 -15.6692 -1.37817 -0.064011 1 
736 1 19.1205 17.0921 0.0286714 1 
737 1 -20.8247 19.2367 1.07682 1 
738 1 -4.01438 12.5225 -0.148805 1 
739 1 16.255 15.0537 0.327477 1 
740 1 6.91409 -24.266 -0.308515 1 
741 1 -8.30584 -14.2019 0.289284 1 
742 1 19.2841 -17.8119 -0.3659 1 
743 1 19.3457 -0.227291 -0.845245 1 
744 1 -10.3424 2.76372 0.547579 1 
745 1 1.19837 14.9965 0.627658 1 
746 1 -4.75377 -12.119 0.0916077 1 
747 1 -6.04224 -6.47058 0.172769 1 
748 1 13.494 -11.7198 -0.190836 1 
749 1 11.5177 10.4013 0.563718 1 
750 1 0.786458 -11.86 0.0335338 1 
751 1 18.8338 24.5471 -0.429366 1 
752 1 -16.7521 -17.718 0.394282 1 
753 1 9.76085 -3.4694 -1.02053 1 
754 1 22.6258 -8.40673 -0.878485 1 
755 1 12.3056 -18.7673 0.0874622 1 
756 1 -7.01261 23.9529 0.668458 1 
757 1 -2.29655 8.10536 0.0681591 1 
758 1 7.55597 -16.9136 -0.162868 1 
759 1 -19.9481 -20.4668 0.441613 1 
760 1 6.40427 22.1841 -0.00404199 1 
761 1 5.28383 -10.1648 0.413492 1 
762 1 1.11137 13.5249 0.0290307 1 
763 1 12.6821 -20.4314 -0.0188116 1 
764 1 18.0783 2.28094 -0.683316 1 
765 1 10.6999 15.0048 0.681004 1 
766 1 -7.27986 2.85063 0.148255 1 
767 1 -5.75982 20.3624 0.737116 1 
768 1 -10.5385 23.5376 1.07757 1 
769 1 9.48164 -8.42026 -0.1441 1 
770 1 -0.701222 17.9096 0.51541 1 
771 1 4.59734 18.3788 0.866022 1 
772 1 -9.62647 -4.51444 -0.154864 1 
773 1 9.60119 21.2313 0.0325634 1 
774 1 18.5146 -18.6042 -0.415309 1 
775 1 -23.1694 -14.1062 -0.39596 1 
776 1 -10.5574 13.8262 0.419077 1 
777 1 1.89085 -3.78594 -0.326917 1 
778 1 5.49522 -13.4745 0.37455 1 
779 1 23.4436 -19.3126 -0.553423 1 
780 1 -19.682 -23.1385 0.690281 1 
781 1 -5.981 -17.0255 -0.289116 1 
782 1 -9.80315 14.5152 0.541415 1 
783 1 -8.31535 -2.44281 0.0547113 1 
784 1 -18.1972 11.4026 0.394027 1 
785 1 -23.0174 -5.69081 -0.529591 1 
786 1 5.48369 -17.6737 -0.348154 1 
787 1 -1.38679 -15.4374 -0.504001 1 
788 1 -18.7197 -23.4577 0.685731 1 
789 1 6.10844 -0.675373 -1.08542 1 
790 1 24.7238 -17.8559 -0.487924 1 
791 1 -6.06256 -19.7486 -0.279113 1 
792 1 -3.9523 -16.6124 -0.544015 1 
793 1 14.2169 -18.8813 -0.0860117 1 
794 1 -6.33848 18.0469 0.915541 1 
795 1 21.3628 23.3171 -0.278317 1 
796 1 -23.4063 23.0988 0.338043 1 
797 1 1.62318 -19.0456 -0.201432 1 
798 1 -8.39667 -20.4715 0.352472 1 
799 1 -17.0506 -16.8862 0.0773608 1 
800 1 23.3956 -21.0984 -0.184647 1 
801 1 -12.8786 20.6334 0.98009 1 
802 1 -6.69177 24.6402 0.576464 1 
803 1 -6.57195 13.3825 0.395326 1 
804 1 2.24685 11.3422 -0.184049 1 
805 1 -2.52903 6.6198 -0.271876 1 
806 1 -17.4303 -18.6155 0.329504 1 
807 1 6.59898 15.3823 0.557827 1 
808 1 1.82434 20.0827 0.387068 1 
809 1 -8.03013 -5.47318 0.0824725 1 
810 1 0.496339 -22.2972 0.0237251 1 
811 1 11.5286 3.09086 -0.496688 1 
812 1 7.67146 -10.8065 0.337929 1 
813 1 -19.0396 14.8589 0.487911 1 
814 1 -14.2873 -9.08708 -0.438718 1 
815 1 -22.9203 -11.2585 -0.647641 1 
816 1 -22.2459 -4.12902 -0.0178098 1 
817 1 5.40393 -9.12012 0.270514 1 
818 1 -8.17095 -24.3043 0.658527 1 
819 1 9.99957 23.7897 -0.112181 1 
820 1 -5.72028 -10.2596 0.221412 1 
821 1 -8.45375 -10.0855 -0.18109 1 
822 1 -4.92855 2.91035 0.0557156 1 
823 1 17.1538 -7.90497 -0.80935 1 
824 1 17.7046 20.9107 0.0513965 1 
825 1 -3.33653 -20.5495 -0.249725 1 
826 1 22.5666 5.80674 -0.0788295 1 
827 1 -10.2296 -10.0462 -0.218372 1 
828 1 3.3614 -3.78773 -0.75292 1 
829 1 17.1425 -9.03449 -0.732863 1 
830 1 19.4369 1.80448 -0.470932 1 
831 1 11.5629 -2.24351 -1.48723 1 
832 1 0.427631 16.3912 0.885238 1 
833 1 -15.1023 -13.9323 0.144212 1 
834 1 -1.69308 -12.7931 0.112907 1 
835 1 -23.8989 -13.6274 -0.617055 1 
836 1 -16.4949 21.5873 1.43135 1 
837 1 24.4274 1.05768 -0.205521 1 
838 1 -13.9631 -10.1134 -0.562247 1 
839 1 -11.4296 23.0721 1.14424 1 
840 1 -17.7907 -23.0939 0.756342 1 
841 1 22.9953 -0.283207 -0.495899 1 
842 1 11.7184 -8.22113 -0.469553 1 
843 1 5.10203 24.497 0.0849877 1 
844 1 -17.1437 -10.8899 -0.154863 1 
845 1 20.2565 -10.4583 -0.307103 1 
846 1 2.94854 22.8554 -0.224874 1 
847 1 -17.7229 -7.06964 -0.223674 1 